# Minimal single-atom LAMMPS data file for testing
1 atoms
1 atom types

0.0 3.567 xlo xhi
0.0 3.567 ylo yhi
0.0 3.567 zlo zhi

Masses

1 12.011

Atoms # atomic

1 1 0.0 0.0 0.0
