# Minimal 4-atom LAMMPS data file for runtime testing
4 atoms
1 atom types

0.0 7.134 xlo xhi
0.0 7.134 ylo yhi
0.0 7.134 zlo zhi

Masses

1 12.011

Atoms # atomic

1 1 0.0 0.0 0.0
2 1 1.7835 1.7835 1.7835
3 1 3.5670 3.5670 0.0
4 1 5.3505 5.3505 1.7835
